# Converted from POSCAR to lammps format

84 atoms
2 atom types

0.000000   21.381931   xlo xhi
0.000000   12.344976   ylo yhi
0.000000   19.919367   zlo zhi

  0.000000   -0.000003    0.000003   xy xz yz

Atoms

   1  1      19.561809 4.750504 9.710277
   2  1      12.468548 4.750113 10.192196
   3  1      5.242037 4.636293 10.257181
   4  1      1.738542 10.809786 10.185173
   5  1      16.071445 10.960330 10.205926
   6  1      8.934259 10.855624 9.109270
   7  1      3.973179 10.874586 9.452361
   8  1      18.267901 10.836425 10.637799
   9  1      11.211877 10.885656 9.487128
  10  1      0.468573 4.629785 9.673511
  11  1      14.738355 4.755710 9.974562
  12  1      7.554341 4.685999 10.371858
  13  1      3.009166 4.598972 9.673151
  14  1      17.313495 4.752484 10.171956
  15  1      10.146038 4.725783 10.300341
  16  1      20.829656 10.785541 10.410377
  17  1      13.807909 10.988193 9.701613
  18  1      6.592241 10.852563 9.283925
  19  1      1.649239 6.886409 9.619733
  20  1      15.932504 6.954491 10.283788
  21  1      8.840443 6.960960 10.537855
  22  1      19.559126 0.721718 10.469530
  23  1      12.546194 0.777695 9.614983
  24  1      5.332903 0.730624 9.294188
  25  1      4.104014 2.681479 9.356480
  26  1      18.442600 2.725046 10.612026
  27  1      11.312521 2.677823 10.092286
  28  1      0.477190 8.801259 10.055351
  29  1      14.789790 8.919155 9.864640
  30  1      7.658469 8.913325 10.065044
  31  1      20.757520 2.643377 9.958265
  32  1      13.649043 2.783589 9.609306
  33  1      6.462373 2.623946 9.950104
  34  1      2.858913 8.806639 9.407583
  35  1      17.050600 8.939919 10.910686
  36  1      10.096236 8.913087 10.090243
  37  1      8.843423 5.465919 10.388117
  38  2      1.716876 5.373432 9.646492
  39  2      3.952328 9.583184 9.100319
  40  2      18.179535 9.607225 11.241432
  41  2      11.227276 9.639215 10.000868
  42  2      0.600541 3.292647 10.010174
  43  2      14.762645 3.517303 9.414204
  44  2      7.594575 3.357436 10.053592
  45  2      2.972710 3.380625 9.148684
  46  2      17.336557 3.444065 10.740019
  47  2      10.166716 3.353261 10.313611
  48  2      20.726293 9.476509 10.152074
  49  2      13.789208 9.654543 9.463666
  50  2      6.544303 9.672951 9.943380
  51  2      18.375971 5.325411 9.643914
  52  2      11.304168 5.403438 10.213212
  53  2      4.006759 5.244165 10.288305
  54  2      0.665715 11.488726 10.665138
  55  2      14.919543 11.667705 10.045143
  56  2      7.735398 11.327068 8.746816
  57  2      15.993618 5.509815 10.172989
  58  2      19.586033 11.522680 10.608263
  59  2      12.510981 11.651139 9.549239
  60  2      5.329920 11.655653 9.214030
  61  2      2.784289 7.535444 9.124149
  62  2      16.915363 7.576167 10.965680
  63  2      10.024523 7.645792 10.534743
  64  2      20.592991 1.305308 9.852823
  65  2      13.690980 1.454173 9.343496
  66  2      6.479457 1.292062 9.689970
  67  2      2.921470 11.508649 9.956731
  68  2      17.288846 11.526311 10.118266
  69  2      10.099919 11.490676 8.975069
  70  2      20.758078 5.315478 9.371739
  71  2      13.617042 5.383701 10.382800
  72  2      6.368254 5.269297 10.527336
  73  2      4.254251 1.428894 8.985448
  74  2      11.407719 1.338442 10.026621
  75  2      18.559089 1.406498 11.048896
  76  2      0.529546 7.444594 10.046389
  77  2      14.858290 7.546195 9.727979
  78  2      7.676510 7.656630 10.499618
  79  2      5.278232 3.275630 9.920452
  80  2      19.590070 3.383638 10.089002
  81  2      12.496439 3.405899 9.970978
  82  2      8.895447 9.592640 9.761718
  83  2      1.700666 9.449534 10.007564
  84  2      15.953534 9.594062 10.398449
